#Position data for Ti3-Al system at 2000k
32000	atoms

2 atom types

-3.46509 82.4651 xlo xhi      
-3.46509 82.4651 ylo yhi
-3.46509 82.4651 zlo zhi

 Masses
 
 1 	47.8670
 2 	26.9815

 Atoms

29639 2 -1.59361 -1.28022 -0.560051 
5679 1 -2.09525 17.6185 15.7559 
17757 1 -1.88269 2.33753 -0.630352 
19471 1 0.422543 0.527783 -0.0302295 
27097 2 3.42502 1.46796 -2.56665 
19810 1 10.6404 -2.43052 12.1007 
9201 1 19.4975 8.87491 -3.25711 
15140 1 -1.4388 14.4364 12.9869 
29339 2 7.55811 3.41098 -2.15289 
17391 1 5.11905 0.22781 -0.339886 
30439 2 3.41314 -1.31254 0.818158 
15453 1 4.50091 -0.619623 3.44621 
24484 2 5.12811 1.97129 2.36909 
21365 1 3.41534 1.58686 0.342583 
22172 1 4.71187 8.71819 -0.731876 
9338 1 6.18591 2.93534 0.240107 
9447 1 7.91636 2.41777 2.29004 
9169 1 8.18146 -1.59811 -2.63482 
6225 1 8.47782 1.42357 -0.265704 
21444 1 6.42735 -1.84494 0.0545416 
31109 2 9.72101 -3.48016 -1.2742 
11421 1 9.96492 3.82881 2.72291 
23133 1 9.76228 -1.50634 0.500425 
16426 1 12.1409 -0.465125 -0.225555 
12909 1 12.4667 -1.48326 -3.41846 
12349 1 10.6757 2.82284 0.308993 
15825 1 -3.29316 6.07871 15.9505 
22317 1 -2.46641 12.824 8.8347 
30819 2 -2.6291 12.9952 15.4438 
19250 1 14.8482 -0.575409 -1.91952 
10308 1 19.4384 0.430485 -0.642467 
22850 1 18.9147 -1.10257 -3.11805 
22972 1 21.0328 -1.91014 -1.59645 
19337 1 19.5458 -2.90876 16.5453 
8757 1 19.4929 -1.68814 0.851851 
7925 1 18.1808 2.34856 -2.34485 
6662 1 23.3002 7.84894 17.5308 
25780 2 23.2224 0.478388 -1.61853 
8548 1 23.2497 -1.98498 -0.358777 
5079 1 21.8039 0.0296679 0.713074 
4051 1 -2.07542 2.54 11.4581 
27367 2 9.39812 16.4981 8.12985 
16239 1 21.1281 3.59052 -3.49955 
25576 2 11.71 6.92877 -3.32939 
11410 1 0.839822 2.68547 -2.37178 
6560 1 0.0911575 4.36157 -0.0434949 
30569 2 -2.14214 3.81981 1.71261 
27270 2 -3.0087 14.989 10.4964 
22882 1 -2.57335 5.98136 -0.155408 
20529 1 15.6245 3.66339 -3.46202 
27298 2 5.03897 3.61033 -2.07819 
5728 1 4.60337 5.34401 0.602808 
12473 1 3.37471 6.36927 -1.6704 
13338 1 4.46842 8.15992 1.87538 
15092 1 8.00229 7.04867 0.339269 
9796 1 6.29706 5.82931 -1.49534 
4160 1 2.55807 4.21394 -0.472312 
21747 1 8.49051 4.24719 0.210648 
4508 1 8.57385 5.09629 4.74783 
12013 1 9.87436 6.89375 2.51348 
4624 1 6.99254 -2.13463 5.38533 
23685 1 7.49792 8.7365 -1.45644 
29170 2 10.5138 3.29753 -2.70441 
608 1 9.99454 5.91551 -1.09552 
388 1 15.9226 1.67879 -0.449072 
18956 1 12.2486 7.08268 0.135174 
16808 1 13.3776 2.13542 -1.70799 
29350 2 9.1017 -1.52861 9.63608 
602 1 10.4324 8.90087 0.504946 
26939 2 24.6441 1.77834 10.6427 
25549 2 20.823 2.60376 -0.437946 
25453 2 18.4845 2.9569 0.286751 
30982 2 16.943 4.32466 -1.19428 
1682 1 19.5528 4.82072 -1.58304 
23937 1 15.1975 6.14842 -2.31488 
4128 1 3.91515 10.9406 -2.91588 
24395 2 17.5452 5.03839 1.38645 
4094 1 24.7111 -2.8979 14.3499 
3385 1 20.636 4.09702 1.46015 
25434 2 21.9441 5.77908 -0.659468 
7037 1 23.2579 3.43515 -1.14966 
13806 1 23.2241 2.41736 1.35846 
18491 1 -3.30071 4.75742 11.4225 
19618 1 13.0373 16.8702 17.9368 
245 1 -0.559165 8.77738 2.26269 
10219 1 0.152551 9.53888 -0.455978 
7886 1 0.522447 12.2166 0.432448 
10904 1 -3.16882 2.05363 -2.91107 
28384 2 -0.865478 11.3778 3.2375 
28614 2 -1.6737 9.18223 4.84119 
1520 1 6.6236 1.02507 -2.83959 
16636 1 -2.16292 11.1888 0.732019 
27713 2 1.9514 7.09879 0.669388 
24473 2 2.05606 8.67683 -1.90783 
9219 1 4.93935 10.8736 1.16733 
18378 1 7.03619 13.1575 0.769385 
5075 1 -0.0502829 7.01939 -1.39045 
22775 1 1.60612 9.44319 3.43988 
22863 1 25.2261 8.98694 13.9997 
30063 2 -2.11887 -2.31627 2.68668 
3566 1 9.08663 11.1497 -0.944211 
31855 2 7.86659 12.738 -3.02308 
3188 1 7.56662 9.835 1.26411 
16433 1 10.0592 13.9372 -0.987049 
10088 1 6.31797 11.4846 -1.14061 
30695 2 10.0467 11.3896 1.47951 
25613 2 -1.32381 -3.58647 0.358387 
16670 1 15.7975 6.97359 0.229683 
13736 1 14.0933 8.65915 -2.73152 
25120 2 11.7922 10.2565 -1.80702 
4017 1 11.3312 -3.28071 5.56236 
4408 1 12.2664 13.053 0.183583 
9503 1 13.3514 8.67221 2.5895 
16103 1 12.7044 11.2358 2.48406 
22874 1 14.3506 11.9174 -1.69455 
14307 1 8.46664 -3.24805 7.50705 
29254 2 17.1404 9.48601 -1.91165 
8879 1 18.0263 7.03925 -0.942877 
16566 1 19.7686 9.34238 -0.495249 
21673 1 14.1633 9.55728 -0.0424873 
6727 1 17.0195 12.1441 -0.758774 
2948 1 17.2753 9.15563 0.833281 
12290 1 24.6773 6.09145 -2.464 
15012 1 23.4194 8.01834 0.10748 
27106 2 -2.57777 1.87326 13.9934 
8828 1 21.9921 10.4 0.701565 
17615 1 24.842 10.2847 -1.17941 
30343 2 22.1018 9.26434 -2.17727 
25764 2 25.1794 18.2777 9.14101 
358 1 -0.545909 12.161 -2.50287 
23226 1 2.10841 12.9025 -1.91799 
3071 1 24.1563 16.7056 11.4575 
3009 1 -0.992954 13.9322 2.37473 
28420 2 -2.39977 13.7748 -0.831362 
24134 2 -0.292681 14.7141 -0.569986 
4376 1 -1.56814 16.3832 1.57143 
9055 1 25.0102 9.86331 5.00656 
13790 1 17.2246 -3.45437 -2.70526 
24740 2 15.0992 14.6153 17.1316 
7935 1 3.59871 12.8962 0.209404 
21372 1 2.41137 9.63154 1.03874 
24617 2 4.50961 15.3634 1.00053 
19860 1 1.78404 15.3846 1.21444 
5686 1 2.37098 15.2845 -1.5308 
26759 2 9.93982 8.65945 -2.51154 
11884 1 7.09068 17.2746 17.193 
10579 1 4.819 17.0752 -1.03232 
6598 1 9.42161 16.7636 -1.13506 
11971 1 7.3489 15.7611 -2.16191 
27260 2 7.04055 16.0295 0.543547 
27875 2 12.0081 15.803 0.300851 
28278 2 12.5606 14.911 -2.44039 
7148 1 14.6158 16.7325 -0.647765 
16089 1 17.0102 15.1649 -0.278983 
29504 2 15.3823 15.016 -2.55629 
17647 1 15.119 14.8113 1.46966 
17723 1 12.437 -2.55863 15.2643 
4323 1 10.6869 0.288766 -2.29624 
5234 1 18.7091 14.6677 -2.23965 
19089 1 17.1558 6.49217 18.0922 
26383 2 -1.58548 -3.22979 5.0077 
29169 2 20.2733 12.2474 -0.68962 
16403 1 17.1136 16.934 -2.38268 
5225 1 19.9461 14.7768 0.323424 
27542 2 21.7548 15.5766 -1.87025 
19167 1 19.0332 12.3579 1.84037 
11095 1 23.9445 17.0802 -2.57097 
23768 1 -0.755498 -2.12707 -3.13421 
2052 1 21.5893 12.1208 3.20679 
7868 1 22.6452 12.2717 -1.43904 
25966 2 22.7384 16.5918 -0.103851 
12005 1 13.8216 -3.57034 9.4447 
10236 1 0.675507 -1.54291 1.46239 
23417 1 -2.37591 -2.50517 9.44553 
26165 2 -1.56235 -0.377819 2.03761 
703 1 -1.4705 16.7403 -2.56788 
1603 1 -1.72344 1.74307 5.26625 
25836 2 -1.71799 0.375187 7.43762 
7754 1 -0.227037 2.11927 2.19954 
792 1 -2.85368 8.98084 15.5667 
28988 2 -1.31995 4.41257 -2.51089 
22667 1 -0.0692763 -0.298628 3.95675 
11479 1 3.62256 1.09904 5.14329 
27805 2 2.4936 3.41887 2.25198 
2441 1 2.45484 -1.75527 4.95247 
15213 1 1.30321 2.16647 4.85834 
4428 1 2.09312 0.640628 2.38255 
26639 2 3.21859 -3.37552 11.3972 
22328 1 4.94707 -3.09012 3.00974 
16569 1 -2.49301 2.51364 8.69725 
21852 1 24.3229 7.53553 4.62396 
16505 1 7.70929 0.912046 5.72762 
7655 1 9.87203 -1.31339 4.79687 
27399 2 9.91208 0.6817 6.86162 
4278 1 8.60179 -0.0838727 2.93458 
24470 2 7.97592 -2.62121 2.39157 
26396 2 24.8621 4.72466 2.9638 
14444 1 11.3917 0.245403 2.28601 
14474 1 14.6271 -0.450693 1.06914 
20794 1 10.9803 -1.62455 7.70131 
24309 2 12.3805 0.530057 6.02678 
19173 1 15.271 0.561059 4.74202 
9380 1 20.9562 11.7077 -3.27042 
20857 1 13.2915 -1.50728 4.09384 
24007 2 17.1401 -2.35097 1.42571 
11003 1 17.0787 -1.10812 -0.827141 
22989 1 16.1896 -1.87731 3.94766 
2636 1 18.7514 -1.86248 4.74132 
4961 1 17.4697 0.243425 2.32478 
3808 1 14.6768 17.5383 15.6519 
22519 1 -3.06159 -1.91493 6.68805 
19326 1 11.1487 -2.37945 2.72418 
7197 1 21.9164 -0.784831 5.58837 
9454 1 20.3281 0.831946 3.466 
21565 1 21.5404 -2.04597 3.25391 
28711 2 24.1131 0.0882151 7.14463 
10253 1 19.5227 3.06653 5.00705 
15362 1 23.2914 -2.72009 6.94573 
23101 1 1.1128 5.95981 2.63367 
7129 1 0.446465 2.27653 7.68929 
1742 1 0.984267 -2.986 -0.830384 
1716 1 20.8406 0.929598 -2.99692 
7866 1 0.706 4.94597 7.11258 
19342 1 -0.317243 4.3717 4.24723 
493 1 -0.521906 6.98537 5.0616 
6021 1 24.7547 0.0219789 0.826542 
31801 2 2.45744 6.4977 5.32633 
30420 2 3.45673 3.16061 7.136 
2614 1 3.91931 4.14838 4.59447 
18164 1 4.14683 5.807 2.87524 
18288 1 6.02366 6.16299 5.12331 
28269 2 3.89025 8.45788 5.0318 
24088 2 10.3015 7.40848 5.59894 
16445 1 6.59692 4.773 2.73285 
16607 1 10.3669 3.03742 4.96399 
1796 1 6.25529 2.88966 5.15266 
9560 1 8.09757 6.38484 7.48055 
25637 2 12.2218 4.52125 1.8727 
31357 2 8.60571 3.44365 7.08479 
7048 1 12.486 5.5026 4.6002 
24960 2 13.3229 2.13985 1.24529 
5624 1 12.5568 3.06373 7.15587 
10187 1 14.4129 4.64621 0.446537 
11175 1 12.7607 2.24984 3.82589 
8398 1 14.3509 7.16765 5.02011 
24364 2 10.6259 5.03765 6.94651 
20501 1 14.9809 1.84466 7.40236 
31024 2 15.1501 3.61157 4.94428 
22106 1 17.1908 5.67526 4.98135 
4487 1 17.2676 1.8042 4.98733 
10747 1 15.748 2.73198 2.26988 
21275 1 14.3692 5.10855 7.33714 
25021 2 17.5542 4.21519 7.41976 
5567 1 19.9251 5.38091 6.60352 
14170 1 19.7553 5.55009 3.57031 
5771 1 22.5702 5.85044 5.27996 
2686 1 22.29 3.80164 3.97504 
14929 1 22.2858 5.9782 1.86912 
30613 2 22.0104 5.57478 8.57676 
22757 1 22.6568 3.49691 6.78071 
8031 1 -1.76234 9.4683 -3.03843 
22425 1 -2.55017 7.03335 6.95449 
22538 1 -1.79957 11.6888 6.42974 
22701 1 0.871074 9.84959 6.00502 
8644 1 -0.177958 13.3035 4.92939 
2314 1 -1.78246 4.40476 6.59864 
25768 2 1.75367 12.1916 3.37532 
24443 2 4.90945 10.2494 3.63886 
21654 1 3.46938 12.0746 5.62492 
15836 1 2.46275 8.23823 7.85721 
29138 2 4.99663 7.60774 7.38382 
12631 1 9.25712 10.8255 5.4357 
10034 1 7.27622 9.67279 8.72204 
25135 2 6.99389 7.38594 2.69393 
25079 2 7.63804 11.5477 3.27892 
22997 1 7.31369 8.80696 5.04105 
3726 1 10.8442 9.46104 3.68817 
8391 1 9.85601 8.06236 9.0064 
30731 2 16.07 10.117 3.28519 
24242 2 11.4247 9.38837 6.46928 
22411 1 12.1033 9.04534 9.58607 
26857 2 9.84127 10.5816 8.37369 
5526 1 13.4894 9.9533 4.96775 
31992 2 11.8528 11.9768 5.54222 
31907 2 14.66 12.9705 3.72667 
8323 1 17.5982 7.60577 3.16993 
11014 1 16.6594 8.66227 5.67394 
24658 2 15.3026 6.02807 2.97368 
7442 1 17.2545 12.4975 4.04227 
27816 2 19.7484 8.03146 4.67692 
3559 1 19.9209 9.80616 2.47656 
18608 1 15.0575 11.9784 1.28732 
26792 2 15.7725 11.1018 6.55006 
16144 1 24.1489 9.42493 2.49116 
21014 1 1.18827 5.43604 -2.82611 
29015 2 18.8393 10.5598 5.04366 
31194 2 19.7028 6.8943 1.34718 
24343 2 21.7628 8.18391 3.56205 
19369 1 18.6528 16.6465 17.9327 
23629 1 5.54069 -1.14806 -2.91895 
13955 1 23.35 -3.30073 -2.43098 
1608 1 -2.32444 16.7113 5.74411 
18149 1 -0.0984285 15.8924 4.45985 
31451 2 1.81177 14.4998 6.26054 
3558 1 -1.50923 15.1758 7.98218 
23036 1 23.8449 17.1795 16.9011 
20619 1 4.69084 17.7677 5.13544 
8432 1 4.22412 12.9937 3.0405 
16480 1 6.86029 8.47272 17.2537 
11515 1 2.9103 14.9609 3.77192 
11445 1 3.73677 17.3213 2.98271 
8166 1 2.30955 17.1069 5.15241 
25075 2 3.41958 16.6655 7.83592 
7662 1 9.44913 13.5044 4.63486 
7896 1 7.7271 15.2911 6.36486 
11114 1 9.19294 14.1106 1.66903 
8678 1 6.53061 12.8601 5.10276 
3145 1 5.69862 15.7057 3.88694 
9096 1 8.3903 16.1758 3.27286 
5388 1 15.1256 16.3035 11.8779 
6114 1 13.36 17.4991 2.27386 
7459 1 16.1736 16.9801 3.34116 
19178 1 12.8055 11.3408 8.02771 
11200 1 11.7604 13.9554 3.02528 
1159 1 14.0653 15.4372 4.13233 
17754 1 11.6013 15.4613 6.15814 
23279 1 20.1227 17.8013 -2.63618 
9473 1 17.9554 14.9531 2.25787 
19582 1 16.6329 14.6081 5.24403 
10593 1 16.333 17.3084 5.99411 
4360 1 19.6585 13.7707 4.88828 
4570 1 18.9047 17.3715 3.78946 
23290 1 19.2669 16.2035 6.00722 
4506 1 24.7967 -0.503796 12.4912 
8447 1 23.4534 13.9887 3.76416 
24158 2 23.9442 12.2872 6.39347 
531 1 22.1326 10.2093 5.36152 
39 1 21.1454 15.9069 2.99347 
22437 1 22.3205 13.7347 1.01435 
16444 1 22.1222 15.8568 6.01522 
6828 1 13.9902 -2.03032 6.68221 
31366 2 -0.308135 -2.01988 12.6098 
2334 1 1.01763 -1.55089 10.1861 
22251 1 24.6433 5.36911 6.82419 
21774 1 1.11263 -0.4095 6.63613 
8362 1 -2.98868 2.83454 16.6673 
18112 1 -0.197402 -2.54587 7.51611 
3097 1 0.244748 0.69179 12.4274 
17049 1 3.84582 -2.28199 8.76592 
14961 1 3.23743 1.55099 11.5136 
4075 1 4.74306 -0.984269 6.46817 
20518 1 2.65004 -1.01023 12.8949 
15890 1 5.27013 0.19329 10.2019 
22193 1 5.73797 -2.86847 10.6 
505 1 10.851 0.234699 11.6814 
10676 1 6.86772 -1.18303 8.39702 
19847 1 5.77446 2.49552 11.7797 
31607 2 7.76135 0.060664 11.3144 
20348 1 5.87494 1.54984 7.70978 
24698 2 -3.41679 8.72523 0.516924 
2322 1 12.9428 -2.79293 -1.05163 
15793 1 11.9328 0.344337 9.14096 
30288 2 15.8878 -0.57939 17.4798 
9372 1 15.1288 0.414264 9.56125 
13797 1 13.2172 -1.34068 10.7229 
27120 2 17.2165 0.867528 11.6216 
31320 2 11.3244 2.21771 13.5375 
30558 2 14.3929 0.896471 12.6939 
29127 2 16.6384 -0.595859 6.88009 
23753 1 19.9548 -2.50718 10.6718 
11835 1 16.1372 -2.92055 8.6021 
4902 1 17.9544 -0.991002 9.47224 
18352 1 19.0106 -2.75523 7.57945 
5354 1 18.8671 -1.31613 13.2651 
945 1 17.761 14.3328 16.9825 
26128 2 -0.989333 0.317956 -2.46428 
1199 1 22.432 -1.09094 9.23555 
9658 1 0.572513 15.1702 -2.99721 
25499 2 23.0951 -2.65511 11.8351 
17618 1 25.0423 -1.45281 9.85089 
14019 1 20.4172 -0.322558 7.45068 
8332 1 19.511 1.46937 10.2101 
2527 1 -1.26005 4.75369 9.22791 
17528 1 24.291 16.6189 3.72152 
30320 2 -0.0584944 4.5097 11.9942 
6627 1 -1.04479 0.272454 10.012 
6375 1 0.677743 7.167 12.8121 
3343 1 1.0028 6.55043 9.76528 
27433 2 1.14118 2.50961 10.3865 
11886 1 3.33713 5.78933 8.66596 
12163 1 2.45188 4.23351 12.4364 
1442 1 4.4783 1.40898 13.9679 
5809 1 3.78297 3.51178 9.86616 
9252 1 2.74381 0.642297 8.544 
27229 2 5.39085 5.46166 11.0114 
22924 1 5.89812 4.73083 7.44435 
8220 1 10.5932 2.58073 9.46122 
23516 1 8.28485 1.5677 8.97013 
12484 1 8.58868 2.33702 12.6845 
6105 1 12.8462 2.2981 10.972 
21240 1 10.458 4.37642 11.9027 
21942 1 12.5164 4.42216 9.42431 
10797 1 11.9649 9.965 11.8045 
19477 1 12.2411 6.90067 8.07571 
28234 2 11.9168 6.8446 11.4238 
20161 1 9.89664 5.35972 9.42098 
888 1 14.5273 7.26969 10.4655 
2489 1 13.9407 4.9579 12.0744 
5835 1 17.6683 1.62858 8.41873 
30930 2 20.0107 4.35284 9.66269 
5067 1 14.8292 3.5704 9.50512 
25459 2 16.8237 5.10681 10.0592 
6008 1 17.253 6.93674 7.58975 
3585 1 19.749 3.59974 12.3194 
8254 1 16.1238 3.09284 12.3965 
13911 1 19.069 6.39366 11.3273 
30730 2 22.4738 1.54526 9.45091 
9337 1 19.8039 7.23098 8.70183 
26131 2 23.9237 3.76531 9.23375 
8592 1 19.9651 2.50037 7.29842 
2755 1 21.5809 5.85321 12.3286 
9103 1 -2.82125 0.0156649 17.3752 
13016 1 22.4866 3.35073 11.408 
4464 1 -1.66885 7.19598 10.8043 
23619 1 -0.404298 8.01115 8.13893 
27796 2 -2.8236 9.47358 8.4981 
27534 2 2.07076 8.93985 10.346 
10677 1 -0.349385 10.4946 9.94942 
28276 2 0.449578 12.7574 7.83591 
19694 1 0.279183 12.3113 12.5023 
5404 1 -2.85227 7.17133 13.4877 
3172 1 2.49529 10.8599 8.04671 
2713 1 4.36436 9.66891 12.4727 
573 1 5.21414 10.3443 6.70185 
18544 1 2.778 11.9425 10.6813 
20409 1 3.23567 6.83117 11.6848 
7128 1 4.79502 8.23861 9.97144 
3307 1 7.6292 6.74531 10.2367 
5923 1 7.43821 4.0699 9.66856 
255 1 7.06259 8.0296 12.7623 
25166 2 6.84877 10.7237 12.1667 
26071 2 9.8176 9.35291 13.724 
23983 1 5.45618 11.1714 9.83646 
26189 2 9.73139 7.2691 11.6589 
1555 1 5.84893 12.2288 14.2948 
27633 2 8.08694 13.5674 15.0746 
25650 2 14.5671 8.16532 7.5 
31180 2 14.5705 10.4055 10.3978 
12896 1 11.1757 12.4471 10.2404 
15800 1 14.1752 13.1183 10.169 
14202 1 9.49524 10.4225 10.9097 
22178 1 16.7191 13.1388 9.03191 
12862 1 18.7619 9.37001 7.49146 
25163 2 16.8155 10.4735 9.1904 
9040 1 16.6997 8.22522 10.497 
19121 1 20.2622 9.52581 11.7574 
9248 1 17.3961 11.5964 11.9208 
9419 1 18.1075 9.36513 13.278 
4146 1 21.7993 7.9326 6.77346 
5909 1 23.7621 9.48216 7.71444 
25834 2 23.9193 5.0556 14.3492 
2152 1 24.3353 6.84593 9.08467 
30690 2 21.2327 10.0842 8.73941 
21099 1 20.4091 11.937 6.8378 
6059 1 19.074 13.1561 14.1625 
30849 2 -0.513612 13.8123 10.5022 
27934 2 16.373 17.8361 9.78683 
6849 1 -0.58769 16.698 10.226 
13189 1 1.1059 15.1566 12.3569 
3483 1 0.484898 16.665 7.04688 
2592 1 6.3058 17.618 7.70542 
11748 1 7.24307 14.6292 12.9773 
29388 2 4.58204 14.793 6.30917 
7383 1 1.51397 15.3447 9.27935 
11402 1 3.58967 14.0191 8.69607 
23928 1 5.39394 16.9483 10.0973 
24108 2 15.918 12.5622 14.1801 
3505 1 6.15233 13.3604 7.94659 
13332 1 10.2453 15.1438 10.4771 
4862 1 8.22169 17.0858 11.359 
24340 2 8.20801 12.2167 9.43301 
30946 2 7.91775 14.9783 9.94901 
21981 1 5.83256 13.6718 10.7654 
19585 1 -2.71151 -0.245827 12.2068 
3735 1 8.9997 12.858 11.9637 
31422 2 9.69637 13.6272 7.72204 
2855 1 13.6458 16.8109 6.4365 
683 1 12.275 14.5874 8.35451 
140 1 12.3682 17.3851 9.7717 
4096 1 12.6267 14.6162 11.8665 
5330 1 14.922 15.5877 9.47562 
12604 1 13.9861 13.8378 7.01923 
9553 1 19.3984 11.8339 9.47833 
5460 1 18.3882 13.9932 10.891 
12864 1 17.7853 12.7118 6.97673 
10790 1 17.5437 15.6651 7.92405 
14156 1 20.4798 14.4972 8.90404 
23088 1 20.6994 17.9825 13.7443 
5463 1 24.0142 12.8173 12.3693 
19522 1 20.3766 15.1167 12.3336 
27176 2 22.5601 12.898 8.12266 
2276 1 22.498 14.2649 10.8 
14859 1 22.5534 16.2551 9.12535 
3652 1 21.72 17.9556 11.3765 
6584 1 20.6497 17.781 8.12604 
11623 1 24.2879 14.8867 7.53148 
4361 1 1.02837 -0.857692 15.108 
11831 1 -1.69523 -0.720526 14.4459 
3417 1 20.1157 12.4014 16.7951 
13580 1 24.7378 12.2366 2.15864 
24195 2 20.1531 12.3056 12.0036 
21977 1 3.45447 1.27691 16.8141 
20872 1 4.2899 -0.697755 15.6083 
27948 2 1.9737 1.67232 14.4668 
24458 2 5.00352 13.7989 -1.95323 
27442 2 -0.946144 17.0622 12.8424 
22784 1 6.4805 1.8097 16.5424 
17558 1 5.99862 -2.13815 15.5508 
23741 1 0.563161 17.5677 -1.08547 
22981 1 1.57787 17.179 14.1841 
17041 1 7.85957 -0.551995 17.42 
18678 1 8.01113 0.263969 14.4211 
12872 1 5.4009 -0.917455 12.9086 
18878 1 11.1525 16.8683 3.66782 
26848 2 8.25829 -2.50072 13.1974 
27932 2 18.2509 18.2187 12.0132 
25312 2 10.108 -1.29858 14.907 
13887 1 10.5739 -1.83631 17.2911 
26169 2 14.1287 -0.444611 15.6065 
31536 2 12.3356 -0.40543 13.5358 
7870 1 14.8775 -2.07444 13.1677 
11957 1 24.8641 -1.70809 5.06757 
14054 1 18.5981 0.165593 16.565 
22634 1 16.6557 -2.46331 11.5826 
12952 1 15.7967 2.2474 14.7516 
31948 2 21.2471 -2.39683 14.1684 
8027 1 16.6987 -0.14918 14.0551 
12951 1 20.1807 15.6569 15.2705 
27672 2 17.1153 -2.69984 17.683 
28408 2 20.8875 1.23977 14.0806 
3144 1 -2.23342 6.78305 2.48607 
3426 1 18.6482 2.26863 14.7877 
24838 2 12.6825 17.1916 13.0277 
16623 1 -0.79025 -1.47911 17.1477 
13413 1 21.0519 -0.48369 16.5651 
29837 2 24.262 -2.43133 2.05985 
834 1 23.2151 -0.606993 14.6088 
20936 1 22.8471 -2.62563 16.6412 
9514 1 21.9489 0.198432 11.8576 
12172 1 16.0746 14.0272 12.0023 
26753 2 -0.28241 2.94838 13.6752 
31165 2 -1.44929 4.9886 14.3487 
1029 1 -0.733951 1.42907 16.4567 
10123 1 14.3864 15.0583 14.266 
19828 1 1.46099 3.06663 17.5382 
10570 1 -0.942062 4.46893 17.2015 
959 1 1.79231 8.0372 16.7966 
15533 1 2.73006 -0.990941 -1.79398 
16437 1 4.07123 3.55828 15.6711 
13299 1 1.44298 4.69964 15.1209 
26854 2 4.234 -3.05771 13.9868 
18065 1 -0.410413 7.7371 15.2783 
27989 2 16.6025 17.9373 0.623212 
10407 1 12.3723 14.4791 16.2839 
14256 1 5.71481 5.79518 14.1363 
26397 2 6.71578 3.03524 14.1562 
6549 1 9.63285 3.89728 15.597 
699 1 10.4248 6.48721 17.1819 
17879 1 9.45153 1.35477 16.2688 
18279 1 6.30119 4.57696 16.4638 
9037 1 11.3758 17.3723 15.3773 
9866 1 8.06392 5.06375 12.799 
15252 1 24.5176 5.41451 0.375921 
7829 1 20.4353 6.50737 -3.04906 
29862 2 12.1586 4.4041 14.3291 
16679 1 23.3831 0.365707 3.41773 
18193 1 13.1991 2.00558 15.6164 
26237 2 12.4701 5.11084 16.5096 
9182 1 15.0303 4.84983 14.7398 
24593 2 13.5487 7.18 14.3715 
3749 1 24.9415 17.1991 6.42388 
6821 1 21.0122 2.71878 16.6379 
5649 1 17.2617 4.26183 16.4616 
22156 1 19.9082 5.64767 16.6837 
3094 1 16.4094 6.44657 12.5998 
14696 1 16.792 6.94789 15.0432 
22562 1 23.0024 5.14779 17.2 
13025 1 23.4133 2.02572 13.487 
25504 2 18.0058 4.66422 13.8754 
17977 1 24.9563 6.60489 16.2545 
17115 1 21.2481 4.10609 14.5468 
20178 1 23.2761 1.49142 16.5547 
17010 1 14.9665 4.80042 17.7391 
15201 1 -2.46019 11.5357 11.0688 
26723 2 12.8315 4.69787 -1.74588 
30257 2 -1.57256 9.20755 12.3227 
17461 1 -0.851188 10.1732 17.2727 
24198 2 4.52792 9.1758 16.1361 
6370 1 1.33887 10.8512 15.1696 
53 1 3.00808 7.59043 14.1619 
27848 2 4.08976 6.32571 16.4536 
7331 1 8.11931 6.19213 15.3242 
2885 1 1.03307 9.75337 12.4956 
28779 2 3.2618 12.1385 13.3654 
23263 1 9.61615 8.74173 16.6173 
13036 1 10.6409 6.97064 14.58 
5133 1 9.90091 11.174 15.8508 
17058 1 7.0097 12.0579 16.855 
22052 1 7.32367 9.65406 15.1225 
20957 1 14.1551 7.16669 17.4252 
24785 2 19.3651 16.7177 10.4952 
22557 1 12.8035 10.0222 14.4978 
5297 1 13.5796 11.9354 13.3274 
6666 1 12.323 8.8318 16.7513 
4215 1 11.0814 12.4395 13.4172 
3718 1 13.8085 11.9643 16.2982 
28860 2 15.2619 9.47382 12.9253 
11547 1 15.4517 9.37224 15.9924 
2790 1 17.2428 11.1767 16.1389 
25188 2 20.0826 10.1908 14.9655 
10377 1 19.7619 7.15204 13.9598 
1946 1 18.2596 9.06789 16.5256 
27508 2 22.1569 11.4938 10.3605 
15698 1 22.712 8.15102 11.3794 
9605 1 17.1014 15.6738 14.0607 
16119 1 16.9032 -2.58034 15.2262 
2996 1 21.0009 8.1281 16.29 
6266 1 22.7109 7.8584 13.9044 
705 1 22.5825 10.7806 13.3786 
23064 1 23.1678 10.3948 16.1921 
12088 1 21.6526 12.9846 14.1966 
3555 1 1.46954 13.6697 14.1659 
4382 1 24.765 5.80749 11.6878 
811 1 -0.993163 15.2719 15.6007 
30180 2 0.403396 17.6045 16.5779 
8507 1 -1.26961 10.9655 14.3073 
13026 1 3.65551 14.5387 11.7222 
3383 1 4.12484 16.6613 16.565 
24149 2 1.69804 15.5146 17.0435 
28320 2 22.801 14.4276 16.4082 
27531 2 24.2363 10.5979 10.845 
28982 2 4.7001 17.1368 13.088 
7602 1 5.86837 14.4414 17.1129 
6196 1 4.53257 14.4742 14.3065 
31734 2 3.25782 12.4589 16.4793 
31371 2 22.584 15.6175 13.7446 
1030 1 0.391194 13.1398 16.5037 
90 1 9.50179 15.7002 16.6331 
1518 1 6.30233 16.0382 15.0007 
24297 2 8.69106 16.8802 14.2261 
23808 1 10.7012 14.9478 13.7396 
23918 1 9.23561 12.9675 17.8529 
21118 1 24.0372 14.3247 -1.38488 
4450 1 0.540521 17.8945 1.66191 
15331 1 20.9101 17.964 16.5778 
669 1 5.58861 17.8891 1.53333 
15820 1 -3.36334 14.4599 17.8538 
16267 1 12.9857 0.647117 17.7601 
27154 2 21.015 10.2129 18.0651 
12208 1 10.9697 15.0128 19.1223 
21456 1 1.90262 -2.40031 21.4715 
14994 1 -2.53976 6.60694 31.621 
27486 2 -1.79014 0.282056 19.6269 
27322 2 0.517227 -2.13923 19.2792 
24826 2 22.602 -0.921338 21.0508 
6866 1 3.7847 -0.318526 20.5474 
6045 1 21.1907 15.8997 18.5972 
12351 1 5.83944 -0.131593 22.3223 
6547 1 3.10569 -0.199769 24.4811 
15476 1 2.6357 1.13831 22.1642 
2272 1 14.4836 16.9636 39.0771 
24004 2 5.74034 -2.37042 18.3726 
21581 1 10.7619 -2.8438 22.4861 
31977 2 10.4006 3.83455 18.0922 
20904 1 9.61427 -0.626113 38.2645 
5756 1 7.16959 -2.71805 21.8858 
1691 1 8.426 -1.96062 19.9703 
13180 1 11.7597 -1.60458 20.162 
4569 1 5.01826 -2.86746 36.7337 
11444 1 21.1125 -2.55512 26.7608 
15444 1 11.4136 -1.82339 24.6426 
17937 1 13.72 -2.03167 18.1683 
2661 1 14.2642 -0.0805945 19.9566 
31842 2 18.073 -0.54561 19.4006 
16859 1 20.1059 0.821977 22.3023 
12447 1 17.4177 -2.21065 21.9958 
7730 1 15.4304 -0.798423 22.8621 
14341 1 20.1743 -1.77136 22.5161 
8666 1 21.1565 1.13295 19.0245 
25714 2 14.0079 -2.7809 33.1604 
23528 1 22.5401 1.59985 23.1809 
2602 1 1.16025 0.883279 19.3251 
19655 1 24.8065 -2.25369 38.4974 
9467 1 -2.41496 9.7157 31.7062 
25411 2 1.62262 2.20416 24.5005 
3673 1 -0.495964 2.07385 21.7458 
987 1 1.44689 5.10926 23.7829 
17404 1 -0.623275 5.2122 19.7449 
20076 1 9.61343 -2.56661 29.0798 
26097 2 -1.64583 2.25431 24.1161 
13087 1 -2.01681 3.97027 22.2536 
22363 1 -2.03427 3.43369 27.7671 
13773 1 10.3746 10.4753 18.8209 
13382 1 1.74961 3.47967 21.047 
11284 1 4.0717 3.72511 23.073 
20780 1 4.69334 1.92383 20.75 
20484 1 2.64534 7.98342 22.4866 
23487 1 3.34704 5.72559 21.1949 
15033 1 6.32964 3.97487 21.2184 
10108 1 7.44172 2.57315 23.5408 
28090 2 22.9985 -2.33797 31.5168 
22257 1 6.56572 5.15404 24.5642 
24465 2 10.6666 0.779579 21.3836 
26520 2 5.09633 1.62979 24.6455 
22629 1 9.34931 2.99107 20.4025 
17298 1 10.8145 3.40081 22.5717 
7013 1 21.2668 -2.69878 37.5651 
18940 1 9.91096 5.69419 20.5721 
26350 2 15.2038 2.24597 17.9586 
3113 1 12.0497 5.76686 21.8967 
28043 2 16.6958 1.61734 21.2528 
16643 1 11.8489 2.32577 19.7467 
19706 1 18.2498 2.16486 18.438 
11303 1 14.3364 4.02891 20.1776 
8368 1 19.02 3.17008 21.0804 
25408 2 16.5261 4.62072 22.5641 
4968 1 16.9378 4.20301 19.6724 
13774 1 21.3517 9.28923 21.043 
26774 2 20.3734 4.31447 18.9635 
31303 2 -1.45037 -3.2813 20.568 
21483 1 16.8078 7.28525 22.8148 
11643 1 21.3842 4.29541 21.5049 
18361 1 23.1813 2.63871 18.834 
24323 2 22.7075 6.55421 25.445 
13492 1 21.1457 17.5174 32.929 
24883 2 16.5736 18.1209 34.2869 
18890 1 22.9543 5.62939 20.01 
20204 1 -0.100682 6.77085 21.933 
25852 2 0.555345 7.94933 19.4139 
19908 1 16.1058 -3.23931 24.0038 
19352 1 -2.84379 6.90567 20.4181 
12061 1 0.727851 9.73662 21.5005 
7409 1 -1.7478 12.3566 18.4591 
31338 2 20.9878 15.362 36.0217 
29939 2 -2.0874 9.86371 19.5341 
22386 1 -2.69422 3.98016 30.5393 
20125 1 3.54248 8.03011 19.6121 
5578 1 5.94037 6.89439 21.2058 
15778 1 2.86801 16.7022 36.4828 
18588 1 3.13173 10.7589 20.8337 
22841 1 16.6527 4.90037 39.0294 
9500 1 4.76939 11.1192 18.5318 
24373 2 4.88168 12.9642 21.377 
27774 2 8.83543 8.30434 19.9779 
9831 1 9.67304 10.387 21.6159 
26600 2 9.58899 12.9476 20.4199 
4502 1 7.83945 10.7151 19.3387 
14724 1 6.11212 9.29729 20.048 
23931 1 7.26474 11.0623 22.4548 
21187 1 8.39369 8.17835 22.6935 
3099 1 -2.66621 10.2646 22.9165 
29858 2 12.0117 7.64368 19.5657 
452 1 15.7211 7.24281 19.793 
12487 1 15.9774 9.41893 21.7073 
14026 1 10.8139 8.01092 22.5232 
29614 2 12.2001 12.2953 20.5249 
15539 1 13.3424 9.46847 21.4745 
11822 1 14.6227 11.1092 23.4104 
16346 1 18.3638 11.8061 18.8016 
2436 1 2.04476 5.71055 18.8484 
1769 1 20.8871 7.47976 18.9273 
27951 2 18.8357 9.09017 19.5349 
1965 1 17.6181 11.3339 21.3442 
2772 1 22.3271 13.0278 18.6478 
23952 1 20.4592 11.413 20.4987 
17096 1 23.922 15.3229 19.8566 
29842 2 5.41147 0.177916 18.6588 
24650 2 4.02584 -2.12715 32.5751 
26414 2 24.2363 8.09557 20.4284 
14869 1 23.6552 10.3484 19.1226 
7 1 23.2551 11.4081 21.8054 
7438 1 23.6266 8.97415 23.4466 
22604 1 -0.956768 15.3453 18.319 
26831 2 -0.891245 12.3785 21.2871 
18696 1 0.557026 15.2829 20.9522 
18735 1 -2.90723 14.2081 20.562 
10997 1 -2.87223 -0.528544 24.5671 
10608 1 -1.02633 14.8346 24.2435 
13660 1 6.49346 -3.33616 33.7989 
20593 1 3.91261 17.48 29.2596 
11177 1 0.96768 12.8575 19.5527 
19995 1 3.48498 14.0212 18.9599 
9167 1 1.92447 17.3783 18.8163 
29389 2 4.94945 16.791 19.3318 
20870 1 24.6868 3.71322 21.1299 
11871 1 6.77504 15.4057 21.6037 
21003 1 3.95143 16.0674 21.6832 
12853 1 -2.42484 17.5259 26.6842 
17704 1 8.53822 16.3721 19.2192 
29604 2 -2.31126 7.73959 26.4873 
16391 1 10.6954 18.0354 20.2156 
16079 1 7.11831 13.6741 19.3472 
30102 2 9.60308 16.2453 22.4559 
30077 2 -1.89593 16.5931 21.6536 
14429 1 -2.78598 4.74097 24.9846 
10382 1 14.1414 14.5781 19.6261 
11335 1 11.9997 15.2488 21.6222 
20793 1 13.4158 13.8232 22.4678 
31244 2 23.8576 6.49936 22.786 
30843 2 17.087 14.5239 20.255 
28396 2 12.1233 12.6431 18.1468 
3184 1 5.53703 5.87234 18.844 
8781 1 14.9367 11.773 21.178 
23275 1 19.7357 13.3181 22.1679 
23099 1 20.4199 16.2179 21.2684 
25804 2 19.3038 14.3904 19.7174 
26599 2 -1.18235 2.59493 19.0068 
11391 1 9.44745 18.0911 34.5919 
19778 1 17.8462 15.7345 22.7211 
14974 1 19.0036 16.5025 33.7955 
8229 1 -2.78298 8.61391 36.6806 
12160 1 22.5482 13.9849 21.4556 
18604 1 -2.62985 -2.6759 38.3605 
16295 1 22.8994 16.8581 22.5206 
17411 1 22.7843 17.5593 19.6816 
20090 1 15.5563 12.2129 18.3184 
10233 1 -1.2995 -2.23223 25.9608 
4655 1 -2.35112 0.788389 27.5123 
23838 1 -0.24705 -0.787244 22.0884 
31170 2 -2.45422 -1.46984 28.9718 
10535 1 0.743043 -3.10278 27.7077 
16937 1 0.280125 0.542287 28.4816 
10328 1 1.40691 -2.67913 24.6224 
9428 1 0.0452104 3.3789 25.9014 
18569 1 0.125069 -0.0377386 25.0877 
28690 2 4.08208 -2.61011 23.3995 
3931 1 22.8607 -2.32406 35.6617 
2868 1 6.0675 -1.2112 24.9806 
29377 2 2.87553 -0.866343 27.2057 
806 1 3.958 -3.27422 28.6921 
24466 2 5.07361 -0.596854 29.0503 
27215 2 -2.63556 11.8444 25.4542 
14122 1 7.51745 -0.141894 29.0974 
7465 1 8.11263 0.684234 25.4911 
29719 2 8.80217 -0.587197 22.9341 
30411 2 6.47767 -2.46906 27.5899 
24905 2 8.97058 -1.30666 26.7534 
16140 1 18.8668 -3.18819 24.4321 
28969 2 -1.34207 15.6054 30.1256 
10946 1 14.3803 -0.379547 28.2207 
12283 1 12.8695 -0.667963 22.4795 
17029 1 13.8724 -2.14821 25.9968 
14814 1 12.0483 0.776404 27.109 
25521 2 13.3952 0.296296 24.9173 
3146 1 10.8133 0.722976 23.9695 
19313 1 16.4576 0.127666 29.3175 
10180 1 10.0713 1.18446 28.1922 
22388 1 11.5427 -1.15514 27.3468 
17401 1 8.15642 17.8438 31.9564 
25651 2 21.0301 0.0667412 24.9969 
19718 1 18.2384 -0.163071 24.1828 
29582 2 24.8031 0.376791 20.8028 
19905 1 17.4384 1.54113 27.1083 
18571 1 15.8148 -0.103412 25.6327 
3898 1 17.96 -1.55503 27.2175 
9659 1 23.4538 0.108798 29.3442 
28876 2 23.5292 -0.576636 26.6813 
18675 1 22.0803 3.3487 25.4587 
29787 2 23.1847 -1.06148 23.4979 
12997 1 20.2959 1.28012 27.3787 
750 1 23.1571 -3.00625 28.8146 
14557 1 -1.04406 5.58693 28.49 
6941 1 -0.248935 6.36313 25.3546 
29243 2 -0.119979 3.00171 29.3681 
17750 1 1.90694 4.36131 28.1726 
21778 1 2.41965 6.89137 29.765 