LAMMPS data file via write_data, version 26 Jan 2017-ICMS, timestep = 0

321 atoms
2 atom types

0.0000000000000000e+000 2.6137603325841006e+001 xlo xhi
0.0000000000000000e+000 1.5090552316272001e+001 ylo yhi
0.0000000000000000e+000 1.4105504522417998e+001 zlo zhi
0.0000000000000000e+000 0.0000000000000000e+000 0.0000000000000000e+000 xy xz yz

Masses

1 47.867
2 26.9815

Atoms # atomic

1 1 1.4255954733207090e+000 4.1765245739787726e+000 3.5263761306044996e+000 0 0 0
2 1 2.9041786265552543e+000 3.3228643232172206e+000 1.1754587102014999e+000 0 0 0
3 1 4.3297743437602092e+000 8.5366006967492569e-001 1.1754587102014999e+000 0 0 0
4 1 1.7140465713438854e-011 1.7073201393498514e+000 3.5263761306044996e+000 0 0 0
5 1 1.4785824330155046e+000 8.5366006967492569e-001 1.1754587102014999e+000 0 0 0
6 2 2.9041781444451558e+000 1.6767281944304968e+000 3.5263761306044996e+000 0 0 0
7 2 3.3666669452259153e-011 3.3534563888609936e+000 1.1754587102014999e+000 0 0 0
8 1 7.2339517679857090e+000 4.1765245739787726e+000 3.5263761306044996e+000 0 0 0
9 1 8.7125349212202554e+000 3.3228643232172206e+000 1.1754587102014999e+000 0 0 0
10 1 1.0138130638425208e+001 8.5366006967492569e-001 1.1754587102014999e+000 0 0 0
11 1 4.3827604613100597e+000 4.1765245739787726e+000 3.5263761306044996e+000 0 0 0
12 1 5.8083562946821417e+000 1.7073201393498514e+000 3.5263761306044996e+000 0 0 0
13 1 7.2869387276805053e+000 8.5366006967492569e-001 1.1754587102014999e+000 0 0 0
14 2 8.7125344391101560e+000 1.6767281944304968e+000 3.5263761306044996e+000 0 0 0
15 2 5.8083562946986671e+000 3.3534563888609936e+000 1.1754587102014999e+000 0 0 0
16 1 1.3042308062650710e+001 4.1765245739787726e+000 3.5263761306044996e+000 0 0 0
17 1 1.4520891215885255e+001 3.3228643232172206e+000 1.1754587102014999e+000 0 0 0
18 1 1.5946486933090206e+001 8.5366006967492569e-001 1.1754587102014999e+000 0 0 0
19 1 1.0191116755975061e+001 4.1765245739787726e+000 3.5263761306044996e+000 0 0 0
20 1 1.1616712589347143e+001 1.7073201393498514e+000 3.5263761306044996e+000 0 0 0
21 1 1.3095295022345505e+001 8.5366006967492569e-001 1.1754587102014999e+000 0 0 0
22 2 1.4520890733775152e+001 1.6767281944304968e+000 3.5263761306044996e+000 0 0 0
23 2 1.1616712589363667e+001 3.3534563888609936e+000 1.1754587102014999e+000 0 0 0
24 1 1.8850664357315711e+001 4.1765245739787726e+000 3.5263761306044996e+000 0 0 0
25 1 2.0329247510550253e+001 3.3228643232172206e+000 1.1754587102014999e+000 0 0 0
26 1 2.1754843227755210e+001 8.5366006967492569e-001 1.1754587102014999e+000 0 0 0
27 1 1.5999473050640059e+001 4.1765245739787726e+000 3.5263761306044996e+000 0 0 0
28 1 1.7425068884012141e+001 1.7073201393498514e+000 3.5263761306044996e+000 0 0 0
29 1 1.8903651317010507e+001 8.5366006967492569e-001 1.1754587102014999e+000 0 0 0
30 2 2.0329247028440157e+001 1.6767281944304968e+000 3.5263761306044996e+000 0 0 0
31 2 1.7425068884028665e+001 3.3534563888609936e+000 1.1754587102014999e+000 0 0 0
32 1 2.4659020651980708e+001 4.1765245739787726e+000 3.5263761306044996e+000 0 0 0
33 1 2.1807829345305066e+001 4.1765245739787726e+000 3.5263761306044996e+000 0 0 0
34 1 2.3233425178677141e+001 1.7073201393498514e+000 3.5263761306044996e+000 0 0 0
35 1 2.4712007611675507e+001 8.5366006967492569e-001 1.1754587102014999e+000 0 0 0
36 2 2.3233425178693665e+001 3.3534563888609936e+000 1.1754587102014999e+000 0 0 0
37 1 4.7927325399044205e-007 8.3530484286412214e+000 1.1754587102014999e+000 0 0 0
38 1 1.4255961964782089e+000 5.8838441750989245e+000 1.1754587102014999e+000 0 0 0
39 1 4.3297736207037092e+000 9.2067086794027748e+000 3.5263761306044996e+000 0 0 0
40 1 5.8083567739382538e+000 8.3530484286412214e+000 1.1754587102014999e+000 0 0 0
41 1 7.2339524911432083e+000 5.8838441750989245e+000 1.1754587102014999e+000 0 0 0
42 1 1.4785823140280601e+000 9.2067086794027748e+000 3.5263761306044996e+000 0 0 0
43 1 2.9041781474001409e+000 6.7375042447738513e+000 3.5263761306044996e+000 0 0 0
44 1 4.3827605803985055e+000 5.8838441750989245e+000 1.1754587102014999e+000 0 0 0
45 2 5.8083562918281553e+000 6.7069122998544977e+000 3.5263761306044996e+000 0 0 0
46 2 2.9041781474166668e+000 8.3836404942849931e+000 1.1754587102014999e+000 0 0 0
47 1 1.0138129915368710e+001 9.2067086794027748e+000 3.5263761306044996e+000 0 0 0
48 1 1.1616713068603254e+001 8.3530484286412214e+000 1.1754587102014999e+000 0 0 0
49 1 1.3042308785808206e+001 5.8838441750989245e+000 1.1754587102014999e+000 0 0 0
50 1 7.2869386086930614e+000 9.2067086794027748e+000 3.5263761306044996e+000 0 0 0
51 1 8.7125344420651434e+000 6.7375042447738513e+000 3.5263761306044996e+000 0 0 0
52 1 1.0191116875063505e+001 5.8838441750989245e+000 1.1754587102014999e+000 0 0 0
53 2 1.1616712586493154e+001 6.7069122998544977e+000 3.5263761306044996e+000 0 0 0
54 2 8.7125344420816671e+000 8.3836404942849931e+000 1.1754587102014999e+000 0 0 0
55 1 1.5946486210033710e+001 9.2067086794027748e+000 3.5263761306044996e+000 0 0 0
56 1 1.7425069363268250e+001 8.3530484286412214e+000 1.1754587102014999e+000 0 0 0
57 1 1.8850665080473206e+001 5.8838441750989245e+000 1.1754587102014999e+000 0 0 0
58 1 1.3095294903358059e+001 9.2067086794027748e+000 3.5263761306044996e+000 0 0 0
59 1 1.4520890736730141e+001 6.7375042447738513e+000 3.5263761306044996e+000 0 0 0
60 1 1.5999473169728503e+001 5.8838441750989245e+000 1.1754587102014999e+000 0 0 0
61 2 1.7425068881158154e+001 6.7069122998544977e+000 3.5263761306044996e+000 0 0 0
62 2 1.4520890736746665e+001 8.3836404942849931e+000 1.1754587102014999e+000 0 0 0
63 1 2.1754842504698708e+001 9.2067086794027748e+000 3.5263761306044996e+000 0 0 0
64 1 2.3233425657933253e+001 8.3530484286412214e+000 1.1754587102014999e+000 0 0 0
65 1 2.4659021375138213e+001 5.8838441750989245e+000 1.1754587102014999e+000 0 0 0
66 1 1.8903651198023066e+001 9.2067086794027748e+000 3.5263761306044996e+000 0 0 0
67 1 2.0329247031395145e+001 6.7375042447738513e+000 3.5263761306044996e+000 0 0 0
68 1 2.1807829464393503e+001 5.8838441750989245e+000 1.1754587102014999e+000 0 0 0
69 2 2.3233425175823154e+001 6.7069122998544977e+000 3.5263761306044996e+000 0 0 0
70 2 2.0329247031411668e+001 8.3836404942849931e+000 1.1754587102014999e+000 0 0 0
71 1 2.4712007492688066e+001 9.2067086794027748e+000 3.5263761306044996e+000 0 0 0
72 1 1.4255954734217091e+000 1.4236892784826773e+001 3.5263761306044996e+000 0 0 0
73 1 2.9041786266562535e+000 1.3383232534065220e+001 1.1754587102014999e+000 0 0 0
74 1 4.3297743438612075e+000 1.0914028280522928e+001 1.1754587102014999e+000 0 0 0
75 1 1.1814103473284377e-010 1.1767688350197849e+001 3.5263761306044996e+000 0 0 0
76 1 1.4785824331165043e+000 1.0914028280522928e+001 1.1754587102014999e+000 0 0 0
77 2 2.9041781445461550e+000 1.1737096405278498e+001 3.5263761306044996e+000 0 0 0
78 2 1.3466667780903661e-010 1.3413824599708995e+001 1.1754587102014999e+000 0 0 0
79 1 7.2339517680867083e+000 1.4236892784826773e+001 3.5263761306044996e+000 0 0 0
80 1 8.7125349213212537e+000 1.3383232534065220e+001 1.1754587102014999e+000 0 0 0
81 1 1.0138130638526208e+001 1.0914028280522928e+001 1.1754587102014999e+000 0 0 0
82 1 4.3827604614110607e+000 1.4236892784826773e+001 3.5263761306044996e+000 0 0 0
83 1 5.8083562947831435e+000 1.1767688350197849e+001 3.5263761306044996e+000 0 0 0
84 1 7.2869387277815045e+000 1.0914028280522928e+001 1.1754587102014999e+000 0 0 0
85 2 8.7125344392111543e+000 1.1737096405278498e+001 3.5263761306044996e+000 0 0 0
86 2 5.8083562947996663e+000 1.3413824599708995e+001 1.1754587102014999e+000 0 0 0
87 1 1.3042308062751712e+001 1.4236892784826773e+001 3.5263761306044996e+000 0 0 0
88 1 1.4520891215986252e+001 1.3383232534065220e+001 1.1754587102014999e+000 0 0 0
89 1 1.5946486933191206e+001 1.0914028280522928e+001 1.1754587102014999e+000 0 0 0
90 1 1.0191116756076060e+001 1.4236892784826773e+001 3.5263761306044996e+000 0 0 0
91 1 1.1616712589448142e+001 1.1767688350197849e+001 3.5263761306044996e+000 0 0 0
92 1 1.3095295022446505e+001 1.0914028280522928e+001 1.1754587102014999e+000 0 0 0
93 2 1.4520890733876154e+001 1.1737096405278498e+001 3.5263761306044996e+000 0 0 0
94 2 1.1616712589464667e+001 1.3413824599708995e+001 1.1754587102014999e+000 0 0 0
95 1 1.8850664357416708e+001 1.4236892784826773e+001 3.5263761306044996e+000 0 0 0
96 1 2.0329247510651257e+001 1.3383232534065220e+001 1.1754587102014999e+000 0 0 0
97 1 2.1754843227856213e+001 1.0914028280522928e+001 1.1754587102014999e+000 0 0 0
98 1 1.5999473050741065e+001 1.4236892784826773e+001 3.5263761306044996e+000 0 0 0
99 1 1.7425068884113141e+001 1.1767688350197849e+001 3.5263761306044996e+000 0 0 0
100 1 1.8903651317111507e+001 1.0914028280522928e+001 1.1754587102014999e+000 0 0 0
101 2 2.0329247028541154e+001 1.1737096405278498e+001 3.5263761306044996e+000 0 0 0
102 2 1.7425068884129665e+001 1.3413824599708995e+001 1.1754587102014999e+000 0 0 0
103 1 2.4659020652081704e+001 1.4236892784826773e+001 3.5263761306044996e+000 0 0 0
104 1 2.1807829345406063e+001 1.4236892784826773e+001 3.5263761306044996e+000 0 0 0
105 1 2.3233425178778141e+001 1.1767688350197849e+001 3.5263761306044996e+000 0 0 0
106 1 2.4712007611776503e+001 1.0914028280522928e+001 1.1754587102014999e+000 0 0 0
107 2 2.3233425178794665e+001 1.3413824599708995e+001 1.1754587102014999e+000 0 0 0
108 1 1.4255954733207090e+000 4.1765245739787726e+000 8.2282109714104994e+000 0 0 0
109 1 2.9041786265552543e+000 3.3228643232172206e+000 5.8772935510074999e+000 0 0 0
110 1 4.3297743437602092e+000 8.5366006967492569e-001 5.8772935510074999e+000 0 0 0
111 1 1.7140465713438854e-011 1.7073201393498514e+000 8.2282109714104994e+000 0 0 0
112 1 1.4785824330155046e+000 8.5366006967492569e-001 5.8772935510074999e+000 0 0 0
113 2 2.9041781444451558e+000 1.6767281944304968e+000 8.2282109714104994e+000 0 0 0
114 2 3.3666669452259153e-011 3.3534563888609936e+000 5.8772935510074999e+000 0 0 0
115 1 7.2339517679857090e+000 4.1765245739787726e+000 8.2282109714104994e+000 0 0 0
116 1 8.7125349212202554e+000 3.3228643232172206e+000 5.8772935510074999e+000 0 0 0
117 1 1.0138130638425208e+001 8.5366006967492569e-001 5.8772935510074999e+000 0 0 0
118 1 4.3827604613100597e+000 4.1765245739787726e+000 8.2282109714104994e+000 0 0 0
119 1 5.8083562946821417e+000 1.7073201393498514e+000 8.2282109714104994e+000 0 0 0
120 1 7.2869387276805053e+000 8.5366006967492569e-001 5.8772935510074999e+000 0 0 0
121 2 8.7125344391101560e+000 1.6767281944304968e+000 8.2282109714104994e+000 0 0 0
122 2 5.8083562946986671e+000 3.3534563888609936e+000 5.8772935510074999e+000 0 0 0
123 1 1.3042308062650710e+001 4.1765245739787726e+000 8.2282109714104994e+000 0 0 0
124 1 1.4520891215885255e+001 3.3228643232172206e+000 5.8772935510074999e+000 0 0 0
125 1 1.5946486933090206e+001 8.5366006967492569e-001 5.8772935510074999e+000 0 0 0
126 1 1.0191116755975061e+001 4.1765245739787726e+000 8.2282109714104994e+000 0 0 0
127 1 1.1616712589347143e+001 1.7073201393498514e+000 8.2282109714104994e+000 0 0 0
128 1 1.3095295022345505e+001 8.5366006967492569e-001 5.8772935510074999e+000 0 0 0
129 2 1.4520890733775152e+001 1.6767281944304968e+000 8.2282109714104994e+000 0 0 0
130 2 1.1616712589363667e+001 3.3534563888609936e+000 5.8772935510074999e+000 0 0 0
131 1 1.8850664357315711e+001 4.1765245739787726e+000 8.2282109714104994e+000 0 0 0
132 1 2.0329247510550253e+001 3.3228643232172206e+000 5.8772935510074999e+000 0 0 0
133 1 2.1754843227755210e+001 8.5366006967492569e-001 5.8772935510074999e+000 0 0 0
134 1 1.5999473050640059e+001 4.1765245739787726e+000 8.2282109714104994e+000 0 0 0
135 1 1.7425068884012141e+001 1.7073201393498514e+000 8.2282109714104994e+000 0 0 0
136 1 1.8903651317010507e+001 8.5366006967492569e-001 5.8772935510074999e+000 0 0 0
137 2 2.0329247028440157e+001 1.6767281944304968e+000 8.2282109714104994e+000 0 0 0
138 2 1.7425068884028665e+001 3.3534563888609936e+000 5.8772935510074999e+000 0 0 0
139 1 2.4659020651980708e+001 4.1765245739787726e+000 8.2282109714104994e+000 0 0 0
140 1 2.1807829345305066e+001 4.1765245739787726e+000 8.2282109714104994e+000 0 0 0
141 1 2.3233425178677141e+001 1.7073201393498514e+000 8.2282109714104994e+000 0 0 0
142 1 2.4712007611675507e+001 8.5366006967492569e-001 5.8772935510074999e+000 0 0 0
143 2 2.3233425178693665e+001 3.3534563888609936e+000 5.8772935510074999e+000 0 0 0
144 1 4.7927325399044205e-007 8.3530484286412214e+000 5.8772935510074999e+000 0 0 0
145 1 1.4255961964782089e+000 5.8838441750989245e+000 5.8772935510074999e+000 0 0 0
146 1 4.3297736207037092e+000 9.2067086794027748e+000 8.2282109714104994e+000 0 0 0
147 1 5.8083567739382538e+000 8.3530484286412214e+000 5.8772935510074999e+000 0 0 0
148 1 7.2339524911432083e+000 5.8838441750989245e+000 5.8772935510074999e+000 0 0 0
149 1 1.4785823140280601e+000 9.2067086794027748e+000 8.2282109714104994e+000 0 0 0
150 1 2.9041781474001409e+000 6.7375042447738513e+000 8.2282109714104994e+000 0 0 0
151 1 4.3827605803985055e+000 5.8838441750989245e+000 5.8772935510074999e+000 0 0 0
152 2 5.8083562918281553e+000 6.7069122998544977e+000 8.2282109714104994e+000 0 0 0
153 2 2.9041781474166668e+000 8.3836404942849931e+000 5.8772935510074999e+000 0 0 0
154 1 1.0138129915368710e+001 9.2067086794027748e+000 8.2282109714104994e+000 0 0 0
155 1 1.1616713068603254e+001 8.3530484286412214e+000 5.8772935510074999e+000 0 0 0
156 1 1.3042308785808206e+001 5.8838441750989245e+000 5.8772935510074999e+000 0 0 0
157 1 7.2869386086930614e+000 9.2067086794027748e+000 8.2282109714104994e+000 0 0 0
158 1 8.7125344420651434e+000 6.7375042447738513e+000 8.2282109714104994e+000 0 0 0
159 1 1.0191116875063505e+001 5.8838441750989245e+000 5.8772935510074999e+000 0 0 0
160 2 1.1616712586493154e+001 6.7069122998544977e+000 8.2282109714104994e+000 0 0 0
161 2 8.7125344420816671e+000 8.3836404942849931e+000 5.8772935510074999e+000 0 0 0
162 1 1.5946486210033710e+001 9.2067086794027748e+000 8.2282109714104994e+000 0 0 0
163 1 1.7425069363268250e+001 8.3530484286412214e+000 5.8772935510074999e+000 0 0 0
164 1 1.8850665080473206e+001 5.8838441750989245e+000 5.8772935510074999e+000 0 0 0
165 1 1.3095294903358059e+001 9.2067086794027748e+000 8.2282109714104994e+000 0 0 0
166 1 1.4520890736730141e+001 6.7375042447738513e+000 8.2282109714104994e+000 0 0 0
167 1 1.5999473169728503e+001 5.8838441750989245e+000 5.8772935510074999e+000 0 0 0
168 2 1.7425068881158154e+001 6.7069122998544977e+000 8.2282109714104994e+000 0 0 0
169 2 1.4520890736746665e+001 8.3836404942849931e+000 5.8772935510074999e+000 0 0 0
170 1 2.1754842504698708e+001 9.2067086794027748e+000 8.2282109714104994e+000 0 0 0
171 1 2.3233425657933253e+001 8.3530484286412214e+000 5.8772935510074999e+000 0 0 0
172 1 2.4659021375138213e+001 5.8838441750989245e+000 5.8772935510074999e+000 0 0 0
173 1 1.8903651198023066e+001 9.2067086794027748e+000 8.2282109714104994e+000 0 0 0
174 1 2.0329247031395145e+001 6.7375042447738513e+000 8.2282109714104994e+000 0 0 0
175 1 2.1807829464393503e+001 5.8838441750989245e+000 5.8772935510074999e+000 0 0 0
176 2 2.3233425175823154e+001 6.7069122998544977e+000 8.2282109714104994e+000 0 0 0
177 2 2.0329247031411668e+001 8.3836404942849931e+000 5.8772935510074999e+000 0 0 0
178 1 2.4712007492688066e+001 9.2067086794027748e+000 8.2282109714104994e+000 0 0 0
179 1 1.4255954734217091e+000 1.4236892784826773e+001 8.2282109714104994e+000 0 0 0
180 1 2.9041786266562535e+000 1.3383232534065220e+001 5.8772935510074999e+000 0 0 0
181 1 4.3297743438612075e+000 1.0914028280522928e+001 5.8772935510074999e+000 0 0 0
182 1 1.1814103473284377e-010 1.1767688350197849e+001 8.2282109714104994e+000 0 0 0
183 1 1.4785824331165043e+000 1.0914028280522928e+001 5.8772935510074999e+000 0 0 0
184 2 2.9041781445461550e+000 1.1737096405278498e+001 8.2282109714104994e+000 0 0 0
185 2 1.3466667780903661e-010 1.3413824599708995e+001 5.8772935510074999e+000 0 0 0
186 1 7.2339517680867083e+000 1.4236892784826773e+001 8.2282109714104994e+000 0 0 0
187 1 8.7125349213212537e+000 1.3383232534065220e+001 5.8772935510074999e+000 0 0 0
188 1 1.0138130638526208e+001 1.0914028280522928e+001 5.8772935510074999e+000 0 0 0
189 1 4.3827604614110607e+000 1.4236892784826773e+001 8.2282109714104994e+000 0 0 0
190 1 5.8083562947831435e+000 1.1767688350197849e+001 8.2282109714104994e+000 0 0 0
191 1 7.2869387277815045e+000 1.0914028280522928e+001 5.8772935510074999e+000 0 0 0
192 2 8.7125344392111543e+000 1.1737096405278498e+001 8.2282109714104994e+000 0 0 0
193 2 5.8083562947996663e+000 1.3413824599708995e+001 5.8772935510074999e+000 0 0 0
194 1 1.3042308062751712e+001 1.4236892784826773e+001 8.2282109714104994e+000 0 0 0
195 1 1.4520891215986252e+001 1.3383232534065220e+001 5.8772935510074999e+000 0 0 0
196 1 1.5946486933191206e+001 1.0914028280522928e+001 5.8772935510074999e+000 0 0 0
197 1 1.0191116756076060e+001 1.4236892784826773e+001 8.2282109714104994e+000 0 0 0
198 1 1.1616712589448142e+001 1.1767688350197849e+001 8.2282109714104994e+000 0 0 0
199 1 1.3095295022446505e+001 1.0914028280522928e+001 5.8772935510074999e+000 0 0 0
200 2 1.4520890733876154e+001 1.1737096405278498e+001 8.2282109714104994e+000 0 0 0
201 2 1.1616712589464667e+001 1.3413824599708995e+001 5.8772935510074999e+000 0 0 0
202 1 1.8850664357416708e+001 1.4236892784826773e+001 8.2282109714104994e+000 0 0 0
203 1 2.0329247510651257e+001 1.3383232534065220e+001 5.8772935510074999e+000 0 0 0
204 1 2.1754843227856213e+001 1.0914028280522928e+001 5.8772935510074999e+000 0 0 0
205 1 1.5999473050741065e+001 1.4236892784826773e+001 8.2282109714104994e+000 0 0 0
206 1 1.7425068884113141e+001 1.1767688350197849e+001 8.2282109714104994e+000 0 0 0
207 1 1.8903651317111507e+001 1.0914028280522928e+001 5.8772935510074999e+000 0 0 0
208 2 2.0329247028541154e+001 1.1737096405278498e+001 8.2282109714104994e+000 0 0 0
209 2 1.7425068884129665e+001 1.3413824599708995e+001 5.8772935510074999e+000 0 0 0
210 1 2.4659020652081704e+001 1.4236892784826773e+001 8.2282109714104994e+000 0 0 0
211 1 2.1807829345406063e+001 1.4236892784826773e+001 8.2282109714104994e+000 0 0 0
212 1 2.3233425178778141e+001 1.1767688350197849e+001 8.2282109714104994e+000 0 0 0
213 1 2.4712007611776503e+001 1.0914028280522928e+001 5.8772935510074999e+000 0 0 0
214 2 2.3233425178794665e+001 1.3413824599708995e+001 5.8772935510074999e+000 0 0 0
215 1 1.4255954733207090e+000 4.1765245739787726e+000 1.2930045812216502e+001 0 0 0
216 1 2.9041786265552543e+000 3.3228643232172206e+000 1.0579128391813498e+001 0 0 0
217 1 4.3297743437602092e+000 8.5366006967492569e-001 1.0579128391813498e+001 0 0 0
218 1 1.7140465713438854e-011 1.7073201393498514e+000 1.2930045812216502e+001 0 0 0
219 1 1.4785824330155046e+000 8.5366006967492569e-001 1.0579128391813498e+001 0 0 0
220 2 2.9041781444451558e+000 1.6767281944304968e+000 1.2930045812216502e+001 0 0 0
221 2 3.3666669452259153e-011 3.3534563888609936e+000 1.0579128391813498e+001 0 0 0
222 1 7.2339517679857090e+000 4.1765245739787726e+000 1.2930045812216502e+001 0 0 0
223 1 8.7125349212202554e+000 3.3228643232172206e+000 1.0579128391813498e+001 0 0 0
224 1 1.0138130638425208e+001 8.5366006967492569e-001 1.0579128391813498e+001 0 0 0
225 1 4.3827604613100597e+000 4.1765245739787726e+000 1.2930045812216502e+001 0 0 0
226 1 5.8083562946821417e+000 1.7073201393498514e+000 1.2930045812216502e+001 0 0 0
227 1 7.2869387276805053e+000 8.5366006967492569e-001 1.0579128391813498e+001 0 0 0
228 2 8.7125344391101560e+000 1.6767281944304968e+000 1.2930045812216502e+001 0 0 0
229 2 5.8083562946986671e+000 3.3534563888609936e+000 1.0579128391813498e+001 0 0 0
230 1 1.3042308062650710e+001 4.1765245739787726e+000 1.2930045812216502e+001 0 0 0
231 1 1.4520891215885255e+001 3.3228643232172206e+000 1.0579128391813498e+001 0 0 0
232 1 1.5946486933090206e+001 8.5366006967492569e-001 1.0579128391813498e+001 0 0 0
233 1 1.0191116755975061e+001 4.1765245739787726e+000 1.2930045812216502e+001 0 0 0
234 1 1.1616712589347143e+001 1.7073201393498514e+000 1.2930045812216502e+001 0 0 0
235 1 1.3095295022345505e+001 8.5366006967492569e-001 1.0579128391813498e+001 0 0 0
236 2 1.4520890733775152e+001 1.6767281944304968e+000 1.2930045812216502e+001 0 0 0
237 2 1.1616712589363667e+001 3.3534563888609936e+000 1.0579128391813498e+001 0 0 0
238 1 1.8850664357315711e+001 4.1765245739787726e+000 1.2930045812216502e+001 0 0 0
239 1 2.0329247510550253e+001 3.3228643232172206e+000 1.0579128391813498e+001 0 0 0
240 1 2.1754843227755210e+001 8.5366006967492569e-001 1.0579128391813498e+001 0 0 0
241 1 1.5999473050640059e+001 4.1765245739787726e+000 1.2930045812216502e+001 0 0 0
242 1 1.7425068884012141e+001 1.7073201393498514e+000 1.2930045812216502e+001 0 0 0
243 1 1.8903651317010507e+001 8.5366006967492569e-001 1.0579128391813498e+001 0 0 0
244 2 2.0329247028440157e+001 1.6767281944304968e+000 1.2930045812216502e+001 0 0 0
245 2 1.7425068884028665e+001 3.3534563888609936e+000 1.0579128391813498e+001 0 0 0
246 1 2.4659020651980708e+001 4.1765245739787726e+000 1.2930045812216502e+001 0 0 0
247 1 2.1807829345305066e+001 4.1765245739787726e+000 1.2930045812216502e+001 0 0 0
248 1 2.3233425178677141e+001 1.7073201393498514e+000 1.2930045812216502e+001 0 0 0
249 1 2.4712007611675507e+001 8.5366006967492569e-001 1.0579128391813498e+001 0 0 0
250 2 2.3233425178693665e+001 3.3534563888609936e+000 1.0579128391813498e+001 0 0 0
251 1 4.7927325399044205e-007 8.3530484286412214e+000 1.0579128391813498e+001 0 0 0
252 1 1.4255961964782089e+000 5.8838441750989245e+000 1.0579128391813498e+001 0 0 0
253 1 4.3297736207037092e+000 9.2067086794027748e+000 1.2930045812216502e+001 0 0 0
254 1 5.8083567739382538e+000 8.3530484286412214e+000 1.0579128391813498e+001 0 0 0
255 1 7.2339524911432083e+000 5.8838441750989245e+000 1.0579128391813498e+001 0 0 0
256 1 1.4785823140280601e+000 9.2067086794027748e+000 1.2930045812216502e+001 0 0 0
257 1 2.9041781474001409e+000 6.7375042447738513e+000 1.2930045812216502e+001 0 0 0
258 1 4.3827605803985055e+000 5.8838441750989245e+000 1.0579128391813498e+001 0 0 0
259 2 5.8083562918281553e+000 6.7069122998544977e+000 1.2930045812216502e+001 0 0 0
260 2 2.9041781474166668e+000 8.3836404942849931e+000 1.0579128391813498e+001 0 0 0
261 1 1.0138129915368710e+001 9.2067086794027748e+000 1.2930045812216502e+001 0 0 0
262 1 1.1616713068603254e+001 8.3530484286412214e+000 1.0579128391813498e+001 0 0 0
263 1 1.3042308785808206e+001 5.8838441750989245e+000 1.0579128391813498e+001 0 0 0
264 1 7.2869386086930614e+000 9.2067086794027748e+000 1.2930045812216502e+001 0 0 0
265 1 8.7125344420651434e+000 6.7375042447738513e+000 1.2930045812216502e+001 0 0 0
266 1 1.0191116875063505e+001 5.8838441750989245e+000 1.0579128391813498e+001 0 0 0
267 2 1.1616712586493154e+001 6.7069122998544977e+000 1.2930045812216502e+001 0 0 0
268 2 8.7125344420816671e+000 8.3836404942849931e+000 1.0579128391813498e+001 0 0 0
269 1 1.5946486210033710e+001 9.2067086794027748e+000 1.2930045812216502e+001 0 0 0
270 1 1.7425069363268250e+001 8.3530484286412214e+000 1.0579128391813498e+001 0 0 0
271 1 1.8850665080473206e+001 5.8838441750989245e+000 1.0579128391813498e+001 0 0 0
272 1 1.3095294903358059e+001 9.2067086794027748e+000 1.2930045812216502e+001 0 0 0
273 1 1.4520890736730141e+001 6.7375042447738513e+000 1.2930045812216502e+001 0 0 0
274 1 1.5999473169728503e+001 5.8838441750989245e+000 1.0579128391813498e+001 0 0 0
275 2 1.7425068881158154e+001 6.7069122998544977e+000 1.2930045812216502e+001 0 0 0
276 2 1.4520890736746665e+001 8.3836404942849931e+000 1.0579128391813498e+001 0 0 0
277 1 2.1754842504698708e+001 9.2067086794027748e+000 1.2930045812216502e+001 0 0 0
278 1 2.3233425657933253e+001 8.3530484286412214e+000 1.0579128391813498e+001 0 0 0
279 1 2.4659021375138213e+001 5.8838441750989245e+000 1.0579128391813498e+001 0 0 0
280 1 1.8903651198023066e+001 9.2067086794027748e+000 1.2930045812216502e+001 0 0 0
281 1 2.0329247031395145e+001 6.7375042447738513e+000 1.2930045812216502e+001 0 0 0
282 1 2.1807829464393503e+001 5.8838441750989245e+000 1.0579128391813498e+001 0 0 0
283 2 2.3233425175823154e+001 6.7069122998544977e+000 1.2930045812216502e+001 0 0 0
284 2 2.0329247031411668e+001 8.3836404942849931e+000 1.0579128391813498e+001 0 0 0
285 1 2.4712007492688066e+001 9.2067086794027748e+000 1.2930045812216502e+001 0 0 0
286 1 1.4255954734217091e+000 1.4236892784826773e+001 1.2930045812216502e+001 0 0 0
287 1 2.9041786266562535e+000 1.3383232534065220e+001 1.0579128391813498e+001 0 0 0
288 1 4.3297743438612075e+000 1.0914028280522928e+001 1.0579128391813498e+001 0 0 0
289 1 1.1814103473284377e-010 1.1767688350197849e+001 1.2930045812216502e+001 0 0 0
290 1 1.4785824331165043e+000 1.0914028280522928e+001 1.0579128391813498e+001 0 0 0
291 2 2.9041781445461550e+000 1.1737096405278498e+001 1.2930045812216502e+001 0 0 0
292 2 1.3466667780903661e-010 1.3413824599708995e+001 1.0579128391813498e+001 0 0 0
293 1 7.2339517680867083e+000 1.4236892784826773e+001 1.2930045812216502e+001 0 0 0
294 1 8.7125349213212537e+000 1.3383232534065220e+001 1.0579128391813498e+001 0 0 0
295 1 1.0138130638526208e+001 1.0914028280522928e+001 1.0579128391813498e+001 0 0 0
296 1 4.3827604614110607e+000 1.4236892784826773e+001 1.2930045812216502e+001 0 0 0
297 1 5.8083562947831435e+000 1.1767688350197849e+001 1.2930045812216502e+001 0 0 0
298 1 7.2869387277815045e+000 1.0914028280522928e+001 1.0579128391813498e+001 0 0 0
299 2 8.7125344392111543e+000 1.1737096405278498e+001 1.2930045812216502e+001 0 0 0
300 2 5.8083562947996663e+000 1.3413824599708995e+001 1.0579128391813498e+001 0 0 0
301 1 1.3042308062751712e+001 1.4236892784826773e+001 1.2930045812216502e+001 0 0 0
302 1 1.4520891215986252e+001 1.3383232534065220e+001 1.0579128391813498e+001 0 0 0
303 1 1.5946486933191206e+001 1.0914028280522928e+001 1.0579128391813498e+001 0 0 0
304 1 1.0191116756076060e+001 1.4236892784826773e+001 1.2930045812216502e+001 0 0 0
305 1 1.1616712589448142e+001 1.1767688350197849e+001 1.2930045812216502e+001 0 0 0
306 1 1.3095295022446505e+001 1.0914028280522928e+001 1.0579128391813498e+001 0 0 0
307 2 1.4520890733876154e+001 1.1737096405278498e+001 1.2930045812216502e+001 0 0 0
308 2 1.1616712589464667e+001 1.3413824599708995e+001 1.0579128391813498e+001 0 0 0
309 1 1.8850664357416708e+001 1.4236892784826773e+001 1.2930045812216502e+001 0 0 0
310 1 2.0329247510651257e+001 1.3383232534065220e+001 1.0579128391813498e+001 0 0 0
311 1 2.1754843227856213e+001 1.0914028280522928e+001 1.0579128391813498e+001 0 0 0
312 1 1.5999473050741065e+001 1.4236892784826773e+001 1.2930045812216502e+001 0 0 0
313 1 1.7425068884113141e+001 1.1767688350197849e+001 1.2930045812216502e+001 0 0 0
314 1 1.8903651317111507e+001 1.0914028280522928e+001 1.0579128391813498e+001 0 0 0
315 2 2.0329247028541154e+001 1.1737096405278498e+001 1.2930045812216502e+001 0 0 0
316 2 1.7425068884129665e+001 1.3413824599708995e+001 1.0579128391813498e+001 0 0 0
317 1 2.4659020652081704e+001 1.4236892784826773e+001 1.2930045812216502e+001 0 0 0
318 1 2.1807829345406063e+001 1.4236892784826773e+001 1.2930045812216502e+001 0 0 0
319 1 2.3233425178778141e+001 1.1767688350197849e+001 1.2930045812216502e+001 0 0 0
320 1 2.4712007611776503e+001 1.0914028280522928e+001 1.0579128391813498e+001 0 0 0
321 2 2.3233425178794665e+001 1.3413824599708995e+001 1.0579128391813498e+001 0 0 0

Velocities

1 0.0000000000000000e+000 0.0000000000000000e+000 0.0000000000000000e+000
2 0.0000000000000000e+000 0.0000000000000000e+000 0.0000000000000000e+000
3 0.0000000000000000e+000 0.0000000000000000e+000 0.0000000000000000e+000
4 0.0000000000000000e+000 0.0000000000000000e+000 0.0000000000000000e+000
5 0.0000000000000000e+000 0.0000000000000000e+000 0.0000000000000000e+000
6 0.0000000000000000e+000 0.0000000000000000e+000 0.0000000000000000e+000
7 0.0000000000000000e+000 0.0000000000000000e+000 0.0000000000000000e+000
8 0.0000000000000000e+000 0.0000000000000000e+000 0.0000000000000000e+000
9 0.0000000000000000e+000 0.0000000000000000e+000 0.0000000000000000e+000
10 0.0000000000000000e+000 0.0000000000000000e+000 0.0000000000000000e+000
11 0.0000000000000000e+000 0.0000000000000000e+000 0.0000000000000000e+000
12 0.0000000000000000e+000 0.0000000000000000e+000 0.0000000000000000e+000
13 0.0000000000000000e+000 0.0000000000000000e+000 0.0000000000000000e+000
14 0.0000000000000000e+000 0.0000000000000000e+000 0.0000000000000000e+000
15 0.0000000000000000e+000 0.0000000000000000e+000 0.0000000000000000e+000
16 0.0000000000000000e+000 0.0000000000000000e+000 0.0000000000000000e+000
17 0.0000000000000000e+000 0.0000000000000000e+000 0.0000000000000000e+000
18 0.0000000000000000e+000 0.0000000000000000e+000 0.0000000000000000e+000
19 0.0000000000000000e+000 0.0000000000000000e+000 0.0000000000000000e+000
20 0.0000000000000000e+000 0.0000000000000000e+000 0.0000000000000000e+000
21 0.0000000000000000e+000 0.0000000000000000e+000 0.0000000000000000e+000
22 0.0000000000000000e+000 0.0000000000000000e+000 0.0000000000000000e+000
23 0.0000000000000000e+000 0.0000000000000000e+000 0.0000000000000000e+000
24 0.0000000000000000e+000 0.0000000000000000e+000 0.0000000000000000e+000
25 0.0000000000000000e+000 0.0000000000000000e+000 0.0000000000000000e+000
26 0.0000000000000000e+000 0.0000000000000000e+000 0.0000000000000000e+000
27 0.0000000000000000e+000 0.0000000000000000e+000 0.0000000000000000e+000
28 0.0000000000000000e+000 0.0000000000000000e+000 0.0000000000000000e+000
29 0.0000000000000000e+000 0.0000000000000000e+000 0.0000000000000000e+000
30 0.0000000000000000e+000 0.0000000000000000e+000 0.0000000000000000e+000
31 0.0000000000000000e+000 0.0000000000000000e+000 0.0000000000000000e+000